<?xml version="1.0" encoding="UTF-8"?>

<!-- generated on 24 يون, 2019 EET 02:41:52 ص by Eclipse SUMO GUI Version 1.2.0
<configuration xmlns:xsi="http://www.w3.org/2001/XMLSchema-instance" xsi:noNamespaceSchemaLocation="http://sumo.dlr.de/xsd/sumoConfiguration.xsd">

    <input>
        <net-file value="../city.net.xml"/>
        <route-files value="../city.rou.xml"/>
        <additional-files value="../city.det.xml"/>
    </input>

    <output>
        <tripinfo-output value="../tripinfo.xml"/>
    </output>

    <time>
        <begin value="0"/>
        <end value="30000"/>
    </time>

    <traci_server>
        <remote-port value="38921"/>
    </traci_server>

    <gui_only>
        <gui-settings-file value="../city.settings.xml"/>
    </gui_only>

</configuration>
-->

<tripinfos xmlns:xsi="http://www.w3.org/2001/XMLSchema-instance" xsi:noNamespaceSchemaLocation="http://sumo.dlr.de/xsd/tripinfo_file.xsd">
    <tripinfo id="24" depart="24.00" departLane="SouthEasttoR_0" departPos="5.10" departSpeed="0.00" departDelay="0.00" arrival="100.00" arrivalLane="RtoEast_0" arrivalPos="472.82" arrivalSpeed="15.36" duration="76.00" routeLength="950.21" waitingTime="0.00" waitingCount="0" stopTime="0.00" timeLoss="13.74" rerouteNo="0" devices="tripinfo_24" vType="DEFAULT_VEHTYPE" speedFactor="1.12" vaporized=""/>
    <tripinfo id="14" depart="14.00" departLane="SouthEasttoR_0" departPos="5.10" departSpeed="0.00" departDelay="0.00" arrival="109.00" arrivalLane="UtoNorthWest_0" arrivalPos="486.32" arrivalSpeed="14.56" duration="95.00" routeLength="1125.52" waitingTime="7.00" waitingCount="1" stopTime="0.00" timeLoss="19.86" rerouteNo="0" devices="tripinfo_14" vType="DEFAULT_VEHTYPE" speedFactor="1.08" vaporized=""/>
    <tripinfo id="20" depart="20.00" departLane="SouthEasttoR_0" departPos="5.10" departSpeed="0.00" departDelay="0.00" arrival="114.00" arrivalLane="UtoNorthWest_0" arrivalPos="486.32" arrivalSpeed="13.65" duration="94.00" routeLength="1125.52" waitingTime="0.00" waitingCount="0" stopTime="0.00" timeLoss="14.99" rerouteNo="0" devices="tripinfo_20" vType="DEFAULT_VEHTYPE" speedFactor="1.03" vaporized=""/>
    <tripinfo id="8" depart="8.00" departLane="SouthEasttoR_0" departPos="5.10" departSpeed="0.00" departDelay="0.00" arrival="117.00" arrivalLane="UtoNorthWest_0" arrivalPos="486.32" arrivalSpeed="12.57" duration="109.00" routeLength="1125.52" waitingTime="8.00" waitingCount="1" stopTime="0.00" timeLoss="20.34" rerouteNo="0" devices="tripinfo_8" vType="DEFAULT_VEHTYPE" speedFactor="0.92" vaporized=""/>
    <tripinfo id="31" depart="31.00" departLane="SouthEasttoR_0" departPos="5.10" departSpeed="0.00" departDelay="0.00" arrival="120.00" arrivalLane="UtoNorthEast_0" arrivalPos="486.32" arrivalSpeed="13.64" duration="89.00" routeLength="1107.35" waitingTime="0.00" waitingCount="0" stopTime="0.00" timeLoss="11.44" rerouteNo="0" devices="tripinfo_31" vType="DEFAULT_VEHTYPE" speedFactor="1.03" vaporized=""/>
    <tripinfo id="4" depart="12.00" departLane="EasttoR_0" departPos="5.10" departSpeed="0.00" departDelay="8.00" arrival="143.00" arrivalLane="UtoNorthEast_1" arrivalPos="486.32" arrivalSpeed="14.58" duration="131.00" routeLength="1098.32" waitingTime="40.00" waitingCount="1" stopTime="0.00" timeLoss="56.47" rerouteNo="0" devices="tripinfo_4" vType="DEFAULT_VEHTYPE" speedFactor="1.08" vaporized=""/>
    <tripinfo id="0" depart="0.00" departLane="EasttoR_0" departPos="5.10" departSpeed="0.00" departDelay="0.00" arrival="144.00" arrivalLane="UtoNorthEast_0" arrivalPos="486.32" arrivalSpeed="12.53" duration="144.00" routeLength="1098.32" waitingTime="48.00" waitingCount="1" stopTime="0.00" timeLoss="62.30" rerouteNo="0" devices="tripinfo_0" vType="DEFAULT_VEHTYPE" speedFactor="0.98" vaporized=""/>
    <tripinfo id="2" depart="6.00" departLane="EasttoR_0" departPos="5.10" departSpeed="0.00" departDelay="4.00" arrival="144.00" arrivalLane="UtoNorthWest_0" arrivalPos="486.32" arrivalSpeed="15.83" duration="138.00" routeLength="1116.49" waitingTime="47.00" waitingCount="1" stopTime="0.00" timeLoss="70.40" rerouteNo="0" devices="tripinfo_2" vType="DEFAULT_VEHTYPE" speedFactor="1.20" vaporized=""/>
    <tripinfo id="1" depart="3.00" departLane="EasttoR_0" departPos="5.10" departSpeed="0.00" departDelay="2.00" arrival="145.00" arrivalLane="UtoNorthEast_1" arrivalPos="486.32" arrivalSpeed="14.62" duration="142.00" routeLength="1098.32" waitingTime="47.00" waitingCount="1" stopTime="0.00" timeLoss="68.28" rerouteNo="0" devices="tripinfo_1" vType="DEFAULT_VEHTYPE" speedFactor="1.08" vaporized=""/>
    <tripinfo id="74" depart="75.00" departLane="EasttoR_0" departPos="5.10" departSpeed="0.00" departDelay="1.00" arrival="145.00" arrivalLane="RtoSouthEast_1" arrivalPos="472.75" arrivalSpeed="14.85" duration="70.00" routeLength="979.66" waitingTime="0.00" waitingCount="0" stopTime="0.00" timeLoss="8.19" rerouteNo="0" devices="tripinfo_74" vType="DEFAULT_VEHTYPE" speedFactor="1.14" vaporized=""/>
    <tripinfo id="5" depart="15.00" departLane="EasttoR_0" departPos="5.10" departSpeed="0.00" departDelay="10.00" arrival="151.00" arrivalLane="UtoNorthWest_0" arrivalPos="486.32" arrivalSpeed="12.49" duration="136.00" routeLength="1116.49" waitingTime="35.00" waitingCount="1" stopTime="0.00" timeLoss="50.03" rerouteNo="0" devices="tripinfo_5" vType="DEFAULT_VEHTYPE" speedFactor="0.94" vaporized=""/>
    <tripinfo id="21" depart="31.00" departLane="EasttoR_0" departPos="5.10" departSpeed="0.00" departDelay="10.00" arrival="151.00" arrivalLane="UtoNorthWest_1" arrivalPos="486.32" arrivalSpeed="15.50" duration="120.00" routeLength="1116.49" waitingTime="27.00" waitingCount="1" stopTime="0.00" timeLoss="48.18" rerouteNo="0" devices="tripinfo_21" vType="DEFAULT_VEHTYPE" speedFactor="1.13" vaporized=""/>
    <tripinfo id="13" depart="18.00" departLane="EasttoR_0" departPos="5.10" departSpeed="0.00" departDelay="5.00" arrival="154.00" arrivalLane="UtoNorthEast_0" arrivalPos="486.32" arrivalSpeed="12.11" duration="136.00" routeLength="1098.32" waitingTime="34.00" waitingCount="1" stopTime="0.00" timeLoss="50.73" rerouteNo="0" devices="tripinfo_13" vType="DEFAULT_VEHTYPE" speedFactor="0.94" vaporized=""/>
    <tripinfo id="16" depart="24.00" departLane="EasttoR_0" departPos="5.10" departSpeed="0.00" departDelay="8.00" arrival="155.00" arrivalLane="UtoNorthWest_0" arrivalPos="486.32" arrivalSpeed="13.22" duration="131.00" routeLength="1116.49" waitingTime="31.00" waitingCount="1" stopTime="0.00" timeLoss="52.28" rerouteNo="0" devices="tripinfo_16" vType="DEFAULT_VEHTYPE" speedFactor="1.03" vaporized=""/>
    <tripinfo id="18" depart="28.00" departLane="EasttoR_0" departPos="5.10" departSpeed="0.00" departDelay="10.00" arrival="157.00" arrivalLane="UtoNorthWest_0" arrivalPos="486.32" arrivalSpeed="12.81" duration="129.00" routeLength="1116.49" waitingTime="28.00" waitingCount="1" stopTime="0.00" timeLoss="49.24" rerouteNo="0" devices="tripinfo_18" vType="DEFAULT_VEHTYPE" speedFactor="1.01" vaporized=""/>
    <tripinfo id="38" depart="38.00" departLane="EasttoR_0" departPos="5.10" departSpeed="0.00" departDelay="0.00" arrival="163.00" arrivalLane="UtoNorthEast_0" arrivalPos="486.32" arrivalSpeed="13.82" duration="125.00" routeLength="1098.32" waitingTime="27.00" waitingCount="2" stopTime="0.00" timeLoss="49.26" rerouteNo="0" devices="tripinfo_38" vType="DEFAULT_VEHTYPE" speedFactor="1.06" vaporized=""/>
    <tripinfo id="43" depart="44.00" departLane="EasttoR_0" departPos="5.10" departSpeed="0.00" departDelay="1.00" arrival="165.00" arrivalLane="UtoNorthWest_0" arrivalPos="486.32" arrivalSpeed="11.81" duration="121.00" routeLength="1116.49" waitingTime="11.00" waitingCount="1" stopTime="0.00" timeLoss="30.99" rerouteNo="0" devices="tripinfo_43" vType="DEFAULT_VEHTYPE" speedFactor="0.90" vaporized=""/>
    <tripinfo id="50" depart="50.00" departLane="EasttoR_0" departPos="5.10" departSpeed="0.00" departDelay="0.00" arrival="165.00" arrivalLane="UtoNorthWest_1" arrivalPos="486.32" arrivalSpeed="13.03" duration="115.00" routeLength="1116.49" waitingTime="9.00" waitingCount="1" stopTime="0.00" timeLoss="31.03" rerouteNo="0" devices="tripinfo_50" vType="DEFAULT_VEHTYPE" speedFactor="0.96" vaporized=""/>
    <tripinfo id="54" depart="56.00" departLane="EasttoR_0" departPos="5.10" departSpeed="0.00" departDelay="2.00" arrival="167.00" arrivalLane="UtoNorthEast_0" arrivalPos="486.32" arrivalSpeed="12.68" duration="111.00" routeLength="1098.32" waitingTime="5.00" waitingCount="1" stopTime="0.00" timeLoss="25.00" rerouteNo="0" devices="tripinfo_54" vType="DEFAULT_VEHTYPE" speedFactor="0.93" vaporized=""/>
    <tripinfo id="47" depart="47.00" departLane="EasttoR_0" departPos="5.10" departSpeed="0.00" departDelay="0.00" arrival="169.00" arrivalLane="UtoNorthEast_1" arrivalPos="486.32" arrivalSpeed="14.66" duration="122.00" routeLength="1098.32" waitingTime="21.00" waitingCount="3" stopTime="0.00" timeLoss="50.63" rerouteNo="0" devices="tripinfo_47" vType="DEFAULT_VEHTYPE" speedFactor="1.12" vaporized=""/>
    <tripinfo id="66" depart="66.00" departLane="EasttoR_0" departPos="5.10" departSpeed="0.00" departDelay="0.00" arrival="171.00" arrivalLane="UtoNorthWest_0" arrivalPos="486.32" arrivalSpeed="12.88" duration="105.00" routeLength="1116.49" waitingTime="0.00" waitingCount="0" stopTime="0.00" timeLoss="19.41" rerouteNo="0" devices="tripinfo_66" vType="DEFAULT_VEHTYPE" speedFactor="0.94" vaporized=""/>
    <tripinfo id="68" depart="69.00" departLane="EasttoR_0" departPos="5.10" departSpeed="0.00" departDelay="1.00" arrival="173.00" arrivalLane="UtoNorthEast_0" arrivalPos="486.32" arrivalSpeed="13.90" duration="104.00" routeLength="1098.32" waitingTime="2.00" waitingCount="1" stopTime="0.00" timeLoss="27.73" rerouteNo="0" devices="tripinfo_68" vType="DEFAULT_VEHTYPE" speedFactor="1.05" vaporized=""/>
    <tripinfo id="9" depart="12.00" departLane="SouthWesttoL_0" departPos="5.10" departSpeed="0.00" departDelay="3.00" arrival="177.00" arrivalLane="RtoSouthEast_0" arrivalPos="472.75" arrivalSpeed="15.01" duration="165.00" routeLength="1220.90" waitingTime="69.00" waitingCount="2" stopTime="0.00" timeLoss="86.22" rerouteNo="0" devices="tripinfo_9" vType="DEFAULT_VEHTYPE" speedFactor="1.12" vaporized=""/>
    <tripinfo id="70" depart="72.00" departLane="EasttoR_0" departPos="5.10" departSpeed="0.00" departDelay="2.00" arrival="177.00" arrivalLane="UtoNorthWest_0" arrivalPos="486.32" arrivalSpeed="11.76" duration="105.00" routeLength="1116.49" waitingTime="0.00" waitingCount="0" stopTime="0.00" timeLoss="11.56" rerouteNo="0" devices="tripinfo_70" vType="DEFAULT_VEHTYPE" speedFactor="0.86" vaporized=""/>
    <tripinfo id="7" depart="9.00" departLane="SouthWesttoL_0" departPos="5.10" departSpeed="0.00" departDelay="2.00" arrival="179.00" arrivalLane="RtoEast_1" arrivalPos="472.82" arrivalSpeed="14.81" duration="170.00" routeLength="1230.07" waitingTime="68.00" waitingCount="2" stopTime="0.00" timeLoss="88.70" rerouteNo="0" devices="tripinfo_7" vType="DEFAULT_VEHTYPE" speedFactor="1.09" vaporized=""/>
    <tripinfo id="39" depart="39.00" departLane="SouthWesttoL_0" departPos="5.10" departSpeed="0.00" departDelay="0.00" arrival="180.00" arrivalLane="RtoEast_2" arrivalPos="472.82" arrivalSpeed="15.45" duration="141.00" routeLength="1230.07" waitingTime="41.00" waitingCount="2" stopTime="0.00" timeLoss="64.54" rerouteNo="0" devices="tripinfo_39" vType="DEFAULT_VEHTYPE" speedFactor="1.17" vaporized=""/>
    <tripinfo id="6" depart="6.00" departLane="SouthWesttoL_0" departPos="5.10" departSpeed="0.00" departDelay="0.00" arrival="182.00" arrivalLane="RtoSouthEast_0" arrivalPos="472.75" arrivalSpeed="13.70" duration="176.00" routeLength="1220.90" waitingTime="70.00" waitingCount="2" stopTime="0.00" timeLoss="88.64" rerouteNo="0" devices="tripinfo_6" vType="DEFAULT_VEHTYPE" speedFactor="1.02" vaporized=""/>
    <tripinfo id="26" depart="26.00" departLane="SouthWesttoL_0" departPos="5.10" departSpeed="0.00" departDelay="0.00" arrival="185.00" arrivalLane="RtoSouthEast_0" arrivalPos="472.75" arrivalSpeed="12.59" duration="159.00" routeLength="1220.90" waitingTime="48.00" waitingCount="2" stopTime="0.00" timeLoss="67.55" rerouteNo="0" devices="tripinfo_26" vType="DEFAULT_VEHTYPE" speedFactor="0.97" vaporized=""/>
    <tripinfo id="35" depart="35.00" departLane="WesttoL_0" departPos="5.10" departSpeed="0.00" departDelay="0.00" arrival="187.00" arrivalLane="LtoSouthWest_0" arrivalPos="472.75" arrivalSpeed="11.71" duration="152.00" routeLength="950.21" waitingTime="62.00" waitingCount="1" stopTime="0.00" timeLoss="75.96" rerouteNo="0" devices="tripinfo_35" vType="DEFAULT_VEHTYPE" speedFactor="0.90" vaporized=""/>
    <tripinfo id="46" depart="46.00" departLane="SouthWesttoL_0" departPos="5.10" departSpeed="0.00" departDelay="0.00" arrival="190.00" arrivalLane="RtoEast_0" arrivalPos="472.82" arrivalSpeed="12.57" duration="144.00" routeLength="1230.07" waitingTime="27.00" waitingCount="2" stopTime="0.00" timeLoss="55.02" rerouteNo="0" devices="tripinfo_46" vType="DEFAULT_VEHTYPE" speedFactor="1.00" vaporized=""/>
    <tripinfo id="103" depart="105.00" departLane="WesttoL_0" departPos="5.10" departSpeed="0.00" departDelay="2.00" arrival="193.00" arrivalLane="LtoSouthWest_0" arrivalPos="472.75" arrivalSpeed="13.46" duration="88.00" routeLength="950.21" waitingTime="1.00" waitingCount="1" stopTime="0.00" timeLoss="19.21" rerouteNo="0" devices="tripinfo_103" vType="DEFAULT_VEHTYPE" speedFactor="1.01" vaporized=""/>
    <tripinfo id="30" depart="30.00" departLane="SouthWesttoL_0" departPos="5.10" departSpeed="0.00" departDelay="0.00" arrival="194.00" arrivalLane="RtoSouthEast_0" arrivalPos="472.75" arrivalSpeed="10.77" duration="164.00" routeLength="1220.90" waitingTime="37.00" waitingCount="2" stopTime="0.00" timeLoss="57.98" rerouteNo="0" devices="tripinfo_30" vType="DEFAULT_VEHTYPE" speedFactor="0.83" vaporized=""/>
    <tripinfo id="53" depart="53.00" departLane="SouthWesttoL_0" departPos="5.10" departSpeed="0.00" departDelay="0.00" arrival="195.00" arrivalLane="RtoEast_0" arrivalPos="472.82" arrivalSpeed="13.89" duration="142.00" routeLength="1230.07" waitingTime="22.00" waitingCount="3" stopTime="0.00" timeLoss="54.53" rerouteNo="0" devices="tripinfo_53" vType="DEFAULT_VEHTYPE" speedFactor="1.02" vaporized=""/>
    <tripinfo id="97" depart="97.00" departLane="SouthWesttoL_0" departPos="5.10" departSpeed="0.00" departDelay="0.00" arrival="195.00" arrivalLane="RtoSouthEast_1" arrivalPos="472.75" arrivalSpeed="15.34" duration="98.00" routeLength="1220.90" waitingTime="0.00" waitingCount="0" stopTime="0.00" timeLoss="19.01" rerouteNo="0" devices="tripinfo_97" vType="DEFAULT_VEHTYPE" speedFactor="1.12" vaporized=""/>
    <tripinfo id="106" depart="113.00" departLane="WesttoL_0" departPos="5.10" departSpeed="0.00" departDelay="7.00" arrival="196.00" arrivalLane="LtoSouthWest_2" arrivalPos="472.75" arrivalSpeed="14.31" duration="83.00" routeLength="950.21" waitingTime="0.00" waitingCount="0" stopTime="0.00" timeLoss="18.16" rerouteNo="0" devices="tripinfo_106" vType="DEFAULT_VEHTYPE" speedFactor="1.06" vaporized=""/>
    <tripinfo id="61" depart="61.00" departLane="SouthWesttoL_0" departPos="5.10" departSpeed="0.00" departDelay="0.00" arrival="197.00" arrivalLane="RtoEast_0" arrivalPos="472.82" arrivalSpeed="13.27" duration="136.00" routeLength="1230.07" waitingTime="20.00" waitingCount="2" stopTime="0.00" timeLoss="48.13" rerouteNo="0" devices="tripinfo_61" vType="DEFAULT_VEHTYPE" speedFactor="1.02" vaporized=""/>
    <tripinfo id="104" depart="108.00" departLane="WesttoL_0" departPos="5.10" departSpeed="0.00" departDelay="4.00" arrival="197.00" arrivalLane="LtoSouthWest_0" arrivalPos="472.75" arrivalSpeed="13.00" duration="89.00" routeLength="950.21" waitingTime="0.00" waitingCount="0" stopTime="0.00" timeLoss="15.94" rerouteNo="0" devices="tripinfo_104" vType="DEFAULT_VEHTYPE" speedFactor="0.95" vaporized=""/>
    <tripinfo id="19" depart="19.00" departLane="SouthWesttoL_0" departPos="5.10" departSpeed="0.00" departDelay="0.00" arrival="198.00" arrivalLane="RtoSouthEast_0" arrivalPos="472.75" arrivalSpeed="11.95" duration="179.00" routeLength="1220.90" waitingTime="53.00" waitingCount="3" stopTime="0.00" timeLoss="77.64" rerouteNo="0" devices="tripinfo_19" vType="DEFAULT_VEHTYPE" speedFactor="0.87" vaporized=""/>
    <tripinfo id="114" depart="114.00" departLane="NorthWesttoU_0" departPos="5.10" departSpeed="0.00" departDelay="0.00" arrival="199.00" arrivalLane="UtoNorthEast_0" arrivalPos="486.32" arrivalSpeed="12.70" duration="85.00" routeLength="995.65" waitingTime="0.00" waitingCount="0" stopTime="0.00" timeLoss="8.10" rerouteNo="0" devices="tripinfo_114" vType="DEFAULT_VEHTYPE" speedFactor="0.94" vaporized=""/>
    <tripinfo id="91" depart="91.00" departLane="SouthWesttoL_0" departPos="5.10" departSpeed="0.00" departDelay="0.00" arrival="200.00" arrivalLane="RtoSouthEast_0" arrivalPos="472.75" arrivalSpeed="12.74" duration="109.00" routeLength="1220.90" waitingTime="0.00" waitingCount="0" stopTime="0.00" timeLoss="15.16" rerouteNo="0" devices="tripinfo_91" vType="DEFAULT_VEHTYPE" speedFactor="0.94" vaporized=""/>
    <tripinfo id="100" depart="102.00" departLane="WesttoL_0" departPos="5.10" departSpeed="0.00" departDelay="2.00" arrival="200.00" arrivalLane="LtoSouthWest_0" arrivalPos="472.75" arrivalSpeed="10.70" duration="98.00" routeLength="950.21" waitingTime="0.00" waitingCount="0" stopTime="0.00" timeLoss="16.12" rerouteNo="0" devices="tripinfo_100" vType="DEFAULT_VEHTYPE" speedFactor="0.84" vaporized=""/>
    <tripinfo id="3" depart="9.00" departLane="EasttoR_0" departPos="5.10" departSpeed="0.00" departDelay="6.00" arrival="203.00" arrivalLane="LtoSouthWest_1" arrivalPos="472.75" arrivalSpeed="13.78" duration="194.00" routeLength="1358.18" waitingTime="78.00" waitingCount="2" stopTime="0.00" timeLoss="100.11" rerouteNo="0" devices="tripinfo_3" vType="DEFAULT_VEHTYPE" speedFactor="1.05" vaporized=""/>
    <tripinfo id="25" depart="25.00" departLane="NorthWesttoU_0" departPos="5.10" departSpeed="0.00" departDelay="0.00" arrival="205.00" arrivalLane="LtoWest_0" arrivalPos="472.82" arrivalSpeed="13.49" duration="180.00" routeLength="1208.32" waitingTime="74.00" waitingCount="2" stopTime="0.00" timeLoss="91.75" rerouteNo="0" devices="tripinfo_25" vType="DEFAULT_VEHTYPE" speedFactor="0.99" vaporized=""/>
    <tripinfo id="10" depart="10.00" departLane="WesttoL_0" departPos="5.10" departSpeed="0.00" departDelay="0.00" arrival="207.00" arrivalLane="RtoSouthEast_0" arrivalPos="472.75" arrivalSpeed="12.19" duration="197.00" routeLength="1230.07" waitingTime="85.00" waitingCount="1" stopTime="0.00" timeLoss="97.88" rerouteNo="0" devices="tripinfo_10" vType="DEFAULT_VEHTYPE" speedFactor="0.90" vaporized=""/>
    <tripinfo id="55" depart="55.00" departLane="NorthWesttoU_0" departPos="5.10" departSpeed="0.00" departDelay="0.00" arrival="208.00" arrivalLane="LtoSouthWest_0" arrivalPos="472.75" arrivalSpeed="13.43" duration="153.00" routeLength="1217.35" waitingTime="49.00" waitingCount="1" stopTime="0.00" timeLoss="69.39" rerouteNo="0" devices="tripinfo_55" vType="DEFAULT_VEHTYPE" speedFactor="1.06" vaporized=""/>
    <tripinfo id="63" depart="63.00" departLane="WesttoL_0" departPos="5.10" departSpeed="0.00" departDelay="0.00" arrival="208.00" arrivalLane="RtoEast_0" arrivalPos="472.82" arrivalSpeed="12.86" duration="145.00" routeLength="1239.24" waitingTime="35.00" waitingCount="1" stopTime="0.00" timeLoss="53.32" rerouteNo="0" devices="tripinfo_63" vType="DEFAULT_VEHTYPE" speedFactor="0.98" vaporized=""/>
    <tripinfo id="73" depart="74.00" departLane="NorthEasttoU_0" departPos="5.10" departSpeed="0.00" departDelay="1.00" arrival="208.00" arrivalLane="UtoNorthWest_0" arrivalPos="486.32" arrivalSpeed="14.46" duration="134.00" routeLength="976.57" waitingTime="53.00" waitingCount="1" stopTime="0.00" timeLoss="69.09" rerouteNo="0" devices="tripinfo_73" vType="DEFAULT_VEHTYPE" speedFactor="1.10" vaporized=""/>
    <tripinfo id="15" depart="21.00" departLane="EasttoR_0" departPos="5.10" departSpeed="0.00" departDelay="6.00" arrival="209.00" arrivalLane="LtoSouthWest_1" arrivalPos="472.75" arrivalSpeed="13.16" duration="188.00" routeLength="1358.18" waitingTime="62.00" waitingCount="2" stopTime="0.00" timeLoss="90.62" rerouteNo="0" devices="tripinfo_15" vType="DEFAULT_VEHTYPE" speedFactor="1.01" vaporized=""/>
    <tripinfo id="28" depart="28.00" departLane="NorthWesttoU_0" departPos="5.10" departSpeed="0.00" departDelay="0.00" arrival="209.00" arrivalLane="LtoWest_0" arrivalPos="472.82" arrivalSpeed="12.99" duration="181.00" routeLength="1208.32" waitingTime="67.00" waitingCount="2" stopTime="0.00" timeLoss="87.59" rerouteNo="0" devices="tripinfo_28" vType="DEFAULT_VEHTYPE" speedFactor="0.94" vaporized=""/>
    <tripinfo id="99" depart="99.00" departLane="WesttoL_0" departPos="5.10" departSpeed="0.00" departDelay="0.00" arrival="209.00" arrivalLane="RtoEast_2" arrivalPos="472.82" arrivalSpeed="13.51" duration="110.00" routeLength="1239.24" waitingTime="6.00" waitingCount="1" stopTime="0.00" timeLoss="23.04" rerouteNo="0" devices="tripinfo_99" vType="DEFAULT_VEHTYPE" speedFactor="1.03" vaporized=""/>
    <tripinfo id="11" depart="12.00" departLane="WesttoL_0" departPos="5.10" departSpeed="0.00" departDelay="1.00" arrival="210.00" arrivalLane="RtoEast_0" arrivalPos="472.82" arrivalSpeed="12.86" duration="198.00" routeLength="1239.24" waitingTime="85.00" waitingCount="1" stopTime="0.00" timeLoss="101.14" rerouteNo="0" devices="tripinfo_11" vType="DEFAULT_VEHTYPE" speedFactor="0.93" vaporized=""/>
    <tripinfo id="48" depart="48.00" departLane="WesttoL_0" departPos="5.10" departSpeed="0.00" departDelay="0.00" arrival="210.00" arrivalLane="RtoEast_1" arrivalPos="472.82" arrivalSpeed="12.97" duration="162.00" routeLength="1239.24" waitingTime="55.00" waitingCount="1" stopTime="0.00" timeLoss="72.28" rerouteNo="0" devices="tripinfo_48" vType="DEFAULT_VEHTYPE" speedFactor="1.00" vaporized=""/>
    <tripinfo id="81" depart="82.00" departLane="NorthWesttoU_0" departPos="5.10" departSpeed="0.00" departDelay="1.00" arrival="211.00" arrivalLane="LtoWest_0" arrivalPos="472.82" arrivalSpeed="14.46" duration="129.00" routeLength="1208.32" waitingTime="24.00" waitingCount="2" stopTime="0.00" timeLoss="47.14" rerouteNo="0" devices="tripinfo_81" vType="DEFAULT_VEHTYPE" speedFactor="1.06" vaporized=""/>
    <tripinfo id="84" depart="84.00" departLane="WesttoL_0" departPos="5.10" departSpeed="0.00" departDelay="0.00" arrival="213.00" arrivalLane="RtoEast_1" arrivalPos="472.82" arrivalSpeed="13.06" duration="129.00" routeLength="1239.24" waitingTime="20.00" waitingCount="1" stopTime="0.00" timeLoss="41.23" rerouteNo="0" devices="tripinfo_84" vType="DEFAULT_VEHTYPE" speedFactor="1.02" vaporized=""/>
    <tripinfo id="98" depart="100.00" departLane="SouthWesttoL_0" departPos="5.10" departSpeed="0.00" departDelay="2.00" arrival="213.00" arrivalLane="RtoSouthEast_0" arrivalPos="472.75" arrivalSpeed="14.78" duration="113.00" routeLength="1220.90" waitingTime="13.00" waitingCount="1" stopTime="0.00" timeLoss="33.03" rerouteNo="0" devices="tripinfo_98" vType="DEFAULT_VEHTYPE" speedFactor="1.10" vaporized=""/>
    <tripinfo id="64" depart="64.00" departLane="NorthWesttoU_0" departPos="5.10" departSpeed="0.00" departDelay="0.00" arrival="214.00" arrivalLane="LtoSouthWest_0" arrivalPos="472.75" arrivalSpeed="13.00" duration="150.00" routeLength="1217.35" waitingTime="39.00" waitingCount="2" stopTime="0.00" timeLoss="59.73" rerouteNo="0" devices="tripinfo_64" vType="DEFAULT_VEHTYPE" speedFactor="0.98" vaporized=""/>
    <tripinfo id="75" depart="75.00" departLane="WesttoL_0" departPos="5.10" departSpeed="0.00" departDelay="0.00" arrival="214.00" arrivalLane="RtoEast_0" arrivalPos="472.82" arrivalSpeed="12.56" duration="139.00" routeLength="1239.24" waitingTime="29.00" waitingCount="1" stopTime="0.00" timeLoss="46.26" rerouteNo="0" devices="tripinfo_75" vType="DEFAULT_VEHTYPE" speedFactor="0.97" vaporized=""/>
    <tripinfo id="29" depart="29.00" departLane="WesttoL_0" departPos="5.10" departSpeed="0.00" departDelay="0.00" arrival="215.00" arrivalLane="RtoSouthEast_0" arrivalPos="472.75" arrivalSpeed="14.39" duration="186.00" routeLength="1230.07" waitingTime="80.00" waitingCount="3" stopTime="0.00" timeLoss="105.16" rerouteNo="0" devices="tripinfo_29" vType="DEFAULT_VEHTYPE" speedFactor="1.10" vaporized=""/>
    <tripinfo id="107" depart="117.00" departLane="WesttoL_0" departPos="5.10" departSpeed="0.00" departDelay="10.00" arrival="215.00" arrivalLane="RtoEast_2" arrivalPos="472.82" arrivalSpeed="14.96" duration="98.00" routeLength="1239.24" waitingTime="0.00" waitingCount="0" stopTime="0.00" timeLoss="16.96" rerouteNo="0" devices="tripinfo_107" vType="DEFAULT_VEHTYPE" speedFactor="1.11" vaporized=""/>
    <tripinfo id="93" depart="93.00" departLane="NorthWesttoU_0" departPos="5.10" departSpeed="0.00" departDelay="0.00" arrival="218.00" arrivalLane="LtoWest_0" arrivalPos="472.82" arrivalSpeed="14.12" duration="125.00" routeLength="1208.32" waitingTime="14.00" waitingCount="2" stopTime="0.00" timeLoss="39.33" rerouteNo="0" devices="tripinfo_93" vType="DEFAULT_VEHTYPE" speedFactor="1.02" vaporized=""/>
    <tripinfo id="86" depart="86.00" departLane="NorthWesttoU_0" departPos="5.10" departSpeed="0.00" departDelay="0.00" arrival="219.00" arrivalLane="LtoSouthWest_0" arrivalPos="472.75" arrivalSpeed="12.37" duration="133.00" routeLength="1217.35" waitingTime="14.00" waitingCount="2" stopTime="0.00" timeLoss="41.90" rerouteNo="0" devices="tripinfo_86" vType="DEFAULT_VEHTYPE" speedFactor="0.97" vaporized=""/>
    <tripinfo id="78" depart="81.00" departLane="WesttoL_0" departPos="5.10" departSpeed="0.00" departDelay="3.00" arrival="222.00" arrivalLane="RtoSouthEast_0" arrivalPos="472.75" arrivalSpeed="14.08" duration="141.00" routeLength="1230.07" waitingTime="23.00" waitingCount="1" stopTime="0.00" timeLoss="58.44" rerouteNo="0" devices="tripinfo_78" vType="DEFAULT_VEHTYPE" speedFactor="1.08" vaporized=""/>
    <tripinfo id="89" depart="89.00" departLane="WesttoL_0" departPos="5.10" departSpeed="0.00" departDelay="0.00" arrival="222.00" arrivalLane="RtoEast_0" arrivalPos="472.82" arrivalSpeed="13.03" duration="133.00" routeLength="1239.24" waitingTime="19.00" waitingCount="2" stopTime="0.00" timeLoss="42.96" rerouteNo="0" devices="tripinfo_89" vType="DEFAULT_VEHTYPE" speedFactor="0.99" vaporized=""/>
    <tripinfo id="23" depart="23.00" departLane="NorthEasttoU_0" departPos="5.10" departSpeed="0.00" departDelay="0.00" arrival="223.00" arrivalLane="LtoSouthWest_0" arrivalPos="472.75" arrivalSpeed="15.59" duration="200.00" routeLength="1235.52" waitingTime="104.00" waitingCount="2" stopTime="0.00" timeLoss="122.46" rerouteNo="0" devices="tripinfo_23" vType="DEFAULT_VEHTYPE" speedFactor="1.15" vaporized=""/>
    <tripinfo id="36" depart="36.00" departLane="NorthWesttoU_0" departPos="5.10" departSpeed="0.00" departDelay="0.00" arrival="223.00" arrivalLane="LtoWest_0" arrivalPos="472.82" arrivalSpeed="13.08" duration="187.00" routeLength="1208.32" waitingTime="75.00" waitingCount="3" stopTime="0.00" timeLoss="101.01" rerouteNo="0" devices="tripinfo_36" vType="DEFAULT_VEHTYPE" speedFactor="1.02" vaporized=""/>
    <tripinfo id="108" depart="120.00" departLane="WesttoL_0" departPos="5.10" departSpeed="0.00" departDelay="12.00" arrival="224.00" arrivalLane="RtoEast_1" arrivalPos="472.82" arrivalSpeed="13.61" duration="104.00" routeLength="1239.24" waitingTime="0.00" waitingCount="0" stopTime="0.00" timeLoss="15.92" rerouteNo="0" devices="tripinfo_108" vType="DEFAULT_VEHTYPE" speedFactor="1.01" vaporized=""/>
    <tripinfo id="22" depart="22.00" departLane="WesttoL_0" departPos="5.10" departSpeed="0.00" departDelay="0.00" arrival="226.00" arrivalLane="RtoEast_0" arrivalPos="472.82" arrivalSpeed="11.83" duration="204.00" routeLength="1239.24" waitingTime="81.00" waitingCount="3" stopTime="0.00" timeLoss="103.99" rerouteNo="0" devices="tripinfo_22" vType="DEFAULT_VEHTYPE" speedFactor="0.89" vaporized=""/>
    <tripinfo id="45" depart="45.00" departLane="SouthEasttoR_0" departPos="5.10" departSpeed="0.00" departDelay="0.00" arrival="226.00" arrivalLane="RtoSouthEast_1" arrivalPos="472.75" arrivalSpeed="13.64" duration="181.00" routeLength="1587.30" waitingTime="35.00" waitingCount="2" stopTime="0.00" timeLoss="68.93" rerouteNo="0" devices="tripinfo_45" vType="DEFAULT_VEHTYPE" speedFactor="1.02" vaporized=""/>
    <tripinfo id="56" depart="56.00" departLane="NorthEasttoU_0" departPos="5.10" departSpeed="0.00" departDelay="0.00" arrival="226.00" arrivalLane="LtoSouthWest_2" arrivalPos="472.75" arrivalSpeed="14.56" duration="170.00" routeLength="1235.52" waitingTime="69.00" waitingCount="1" stopTime="0.00" timeLoss="89.99" rerouteNo="0" devices="tripinfo_56" vType="DEFAULT_VEHTYPE" speedFactor="1.12" vaporized=""/>
    <tripinfo id="76" depart="78.00" departLane="WesttoL_0" departPos="5.10" departSpeed="0.00" departDelay="2.00" arrival="226.00" arrivalLane="RtoSouthEast_0" arrivalPos="472.75" arrivalSpeed="12.66" duration="148.00" routeLength="1230.07" waitingTime="22.00" waitingCount="3" stopTime="0.00" timeLoss="54.12" rerouteNo="0" devices="tripinfo_76" vType="DEFAULT_VEHTYPE" speedFactor="0.95" vaporized=""/>
    <tripinfo id="33" depart="33.00" departLane="NorthEasttoU_0" departPos="5.10" departSpeed="0.00" departDelay="0.00" arrival="227.00" arrivalLane="LtoWest_0" arrivalPos="472.82" arrivalSpeed="13.15" duration="194.00" routeLength="1226.49" waitingTime="90.00" waitingCount="1" stopTime="0.00" timeLoss="108.70" rerouteNo="0" devices="tripinfo_33" vType="DEFAULT_VEHTYPE" speedFactor="1.04" vaporized=""/>