<?xml version="1.0" encoding="UTF-8"?>

<!-- generated on 24 يون, 2019 EET 01:51:44 ص by Eclipse SUMO GUI Version 1.2.0
<configuration xmlns:xsi="http://www.w3.org/2001/XMLSchema-instance" xsi:noNamespaceSchemaLocation="http://sumo.dlr.de/xsd/sumoConfiguration.xsd">

    <input>
        <net-file value="../city.net.xml"/>
        <route-files value="../city.rou.xml"/>
        <additional-files value="../city.det.xml"/>
    </input>

    <output>
        <tripinfo-output value="../tripinfo.xml"/>
    </output>

    <time>
        <begin value="0"/>
        <end value="30000"/>
    </time>

    <traci_server>
        <remote-port value="55131"/>
    </traci_server>

    <gui_only>
        <gui-settings-file value="../city.settings.xml"/>
    </gui_only>

</configuration>
-->

<tripinfos xmlns:xsi="http://www.w3.org/2001/XMLSchema-instance" xsi:noNamespaceSchemaLocation="http://sumo.dlr.de/xsd/tripinfo_file.xsd">
    <tripinfo id="74" depart="75.00" departLane="EasttoR_0" departPos="5.10" departSpeed="0.00" departDelay="1.00" arrival="146.00" arrivalLane="RtoSouthEast_0" arrivalPos="472.75" arrivalSpeed="15.62" duration="71.00" routeLength="979.66" waitingTime="0.00" waitingCount="0" stopTime="0.00" timeLoss="8.48" rerouteNo="0" devices="tripinfo_74" vType="DEFAULT_VEHTYPE" speedFactor="1.14" vaporized=""/>
    <tripinfo id="23" depart="23.00" departLane="NorthEasttoU_0" departPos="5.10" departSpeed="0.00" departDelay="0.00" arrival="148.00" arrivalLane="LtoSouthWest_0" arrivalPos="472.75" arrivalSpeed="15.59" duration="125.00" routeLength="1235.52" waitingTime="28.00" waitingCount="2" stopTime="0.00" timeLoss="47.25" rerouteNo="0" devices="tripinfo_23" vType="DEFAULT_VEHTYPE" speedFactor="1.15" vaporized=""/>
    <tripinfo id="1" depart="3.00" departLane="EasttoR_0" departPos="5.10" departSpeed="0.00" departDelay="2.00" arrival="150.00" arrivalLane="UtoNorthEast_1" arrivalPos="486.32" arrivalSpeed="14.06" duration="147.00" routeLength="1098.32" waitingTime="50.00" waitingCount="2" stopTime="0.00" timeLoss="73.86" rerouteNo="0" devices="tripinfo_1" vType="DEFAULT_VEHTYPE" speedFactor="1.08" vaporized=""/>
    <tripinfo id="2" depart="6.00" departLane="EasttoR_0" departPos="5.10" departSpeed="0.00" departDelay="4.00" arrival="150.00" arrivalLane="UtoNorthWest_0" arrivalPos="486.32" arrivalSpeed="16.37" duration="144.00" routeLength="1116.49" waitingTime="48.00" waitingCount="2" stopTime="0.00" timeLoss="76.88" rerouteNo="0" devices="tripinfo_2" vType="DEFAULT_VEHTYPE" speedFactor="1.20" vaporized=""/>
    <tripinfo id="21" depart="31.00" departLane="EasttoR_0" departPos="5.10" departSpeed="0.00" departDelay="10.00" arrival="150.00" arrivalLane="UtoNorthWest_1" arrivalPos="486.32" arrivalSpeed="14.85" duration="119.00" routeLength="1116.49" waitingTime="30.00" waitingCount="1" stopTime="0.00" timeLoss="47.49" rerouteNo="0" devices="tripinfo_21" vType="DEFAULT_VEHTYPE" speedFactor="1.13" vaporized=""/>
    <tripinfo id="56" depart="56.00" departLane="NorthEasttoU_0" departPos="5.10" departSpeed="0.00" departDelay="0.00" arrival="151.00" arrivalLane="LtoSouthWest_1" arrivalPos="472.75" arrivalSpeed="14.97" duration="95.00" routeLength="1235.52" waitingTime="0.00" waitingCount="0" stopTime="0.00" timeLoss="15.09" rerouteNo="0" devices="tripinfo_56" vType="DEFAULT_VEHTYPE" speedFactor="1.12" vaporized=""/>
    <tripinfo id="0" depart="0.00" departLane="EasttoR_0" departPos="5.10" departSpeed="0.00" departDelay="0.00" arrival="152.00" arrivalLane="UtoNorthEast_0" arrivalPos="486.32" arrivalSpeed="12.62" duration="152.00" routeLength="1098.32" waitingTime="53.00" waitingCount="2" stopTime="0.00" timeLoss="70.60" rerouteNo="0" devices="tripinfo_0" vType="DEFAULT_VEHTYPE" speedFactor="0.98" vaporized=""/>
    <tripinfo id="33" depart="33.00" departLane="NorthEasttoU_0" departPos="5.10" departSpeed="0.00" departDelay="0.00" arrival="153.00" arrivalLane="LtoWest_0" arrivalPos="472.82" arrivalSpeed="14.27" duration="120.00" routeLength="1226.49" waitingTime="18.00" waitingCount="1" stopTime="0.00" timeLoss="34.54" rerouteNo="0" devices="tripinfo_33" vType="DEFAULT_VEHTYPE" speedFactor="1.04" vaporized=""/>
    <tripinfo id="18" depart="28.00" departLane="EasttoR_0" departPos="5.10" departSpeed="0.00" departDelay="10.00" arrival="154.00" arrivalLane="UtoNorthWest_1" arrivalPos="486.32" arrivalSpeed="13.54" duration="126.00" routeLength="1116.49" waitingTime="25.00" waitingCount="1" stopTime="0.00" timeLoss="45.76" rerouteNo="0" devices="tripinfo_18" vType="DEFAULT_VEHTYPE" speedFactor="1.01" vaporized=""/>
    <tripinfo id="42" depart="42.00" departLane="NorthEasttoU_0" departPos="5.10" departSpeed="0.00" departDelay="0.00" arrival="154.00" arrivalLane="LtoSouthWest_0" arrivalPos="472.75" arrivalSpeed="14.99" duration="112.00" routeLength="1235.52" waitingTime="14.00" waitingCount="1" stopTime="0.00" timeLoss="30.62" rerouteNo="0" devices="tripinfo_42" vType="DEFAULT_VEHTYPE" speedFactor="1.10" vaporized=""/>
    <tripinfo id="4" depart="12.00" departLane="EasttoR_0" departPos="5.10" departSpeed="0.00" departDelay="8.00" arrival="158.00" arrivalLane="UtoNorthEast_0" arrivalPos="486.32" arrivalSpeed="14.36" duration="146.00" routeLength="1098.32" waitingTime="43.00" waitingCount="2" stopTime="0.00" timeLoss="71.92" rerouteNo="0" devices="tripinfo_4" vType="DEFAULT_VEHTYPE" speedFactor="1.08" vaporized=""/>
    <tripinfo id="49" depart="49.00" departLane="NorthEasttoU_0" departPos="5.10" departSpeed="0.00" departDelay="0.00" arrival="158.00" arrivalLane="LtoSouthWest_1" arrivalPos="472.75" arrivalSpeed="13.07" duration="109.00" routeLength="1235.52" waitingTime="1.00" waitingCount="1" stopTime="0.00" timeLoss="18.81" rerouteNo="0" devices="tripinfo_49" vType="DEFAULT_VEHTYPE" speedFactor="0.99" vaporized=""/>
    <tripinfo id="17" depart="17.00" departLane="NorthEasttoU_0" departPos="5.10" departSpeed="0.00" departDelay="0.00" arrival="159.00" arrivalLane="LtoSouthWest_0" arrivalPos="472.75" arrivalSpeed="11.36" duration="142.00" routeLength="1235.52" waitingTime="25.00" waitingCount="1" stopTime="0.00" timeLoss="41.27" rerouteNo="0" devices="tripinfo_17" vType="DEFAULT_VEHTYPE" speedFactor="0.89" vaporized=""/>
    <tripinfo id="5" depart="15.00" departLane="EasttoR_0" departPos="5.10" departSpeed="0.00" departDelay="10.00" arrival="162.00" arrivalLane="UtoNorthWest_0" arrivalPos="486.32" arrivalSpeed="12.79" duration="147.00" routeLength="1116.49" waitingTime="38.00" waitingCount="2" stopTime="0.00" timeLoss="60.74" rerouteNo="0" devices="tripinfo_5" vType="DEFAULT_VEHTYPE" speedFactor="0.94" vaporized=""/>
    <tripinfo id="43" depart="44.00" departLane="EasttoR_0" departPos="5.10" departSpeed="0.00" departDelay="1.00" arrival="162.00" arrivalLane="UtoNorthWest_1" arrivalPos="486.32" arrivalSpeed="11.58" duration="118.00" routeLength="1116.49" waitingTime="13.00" waitingCount="1" stopTime="0.00" timeLoss="27.88" rerouteNo="0" devices="tripinfo_43" vType="DEFAULT_VEHTYPE" speedFactor="0.90" vaporized=""/>
    <tripinfo id="13" depart="18.00" departLane="EasttoR_0" departPos="5.10" departSpeed="0.00" departDelay="5.00" arrival="163.00" arrivalLane="UtoNorthEast_0" arrivalPos="486.32" arrivalSpeed="12.48" duration="145.00" routeLength="1098.32" waitingTime="37.00" waitingCount="2" stopTime="0.00" timeLoss="59.66" rerouteNo="0" devices="tripinfo_13" vType="DEFAULT_VEHTYPE" speedFactor="0.94" vaporized=""/>
    <tripinfo id="38" depart="38.00" departLane="EasttoR_0" departPos="5.10" departSpeed="0.00" departDelay="0.00" arrival="163.00" arrivalLane="UtoNorthEast_1" arrivalPos="486.32" arrivalSpeed="14.77" duration="125.00" routeLength="1098.32" waitingTime="27.00" waitingCount="1" stopTime="0.00" timeLoss="49.54" rerouteNo="0" devices="tripinfo_38" vType="DEFAULT_VEHTYPE" speedFactor="1.06" vaporized=""/>
    <tripinfo id="16" depart="24.00" departLane="EasttoR_0" departPos="5.10" departSpeed="0.00" departDelay="8.00" arrival="164.00" arrivalLane="UtoNorthWest_1" arrivalPos="486.32" arrivalSpeed="13.30" duration="140.00" routeLength="1116.49" waitingTime="32.00" waitingCount="2" stopTime="0.00" timeLoss="61.06" rerouteNo="0" devices="tripinfo_16" vType="DEFAULT_VEHTYPE" speedFactor="1.03" vaporized=""/>
    <tripinfo id="65" depart="65.00" departLane="NorthEasttoU_0" departPos="5.10" departSpeed="0.00" departDelay="0.00" arrival="165.00" arrivalLane="LtoSouthWest_0" arrivalPos="472.75" arrivalSpeed="12.86" duration="100.00" routeLength="1235.52" waitingTime="0.00" waitingCount="0" stopTime="0.00" timeLoss="11.35" rerouteNo="0" devices="tripinfo_65" vType="DEFAULT_VEHTYPE" speedFactor="1.01" vaporized=""/>
    <tripinfo id="50" depart="50.00" departLane="EasttoR_0" departPos="5.10" departSpeed="0.00" departDelay="0.00" arrival="166.00" arrivalLane="UtoNorthWest_0" arrivalPos="486.32" arrivalSpeed="13.00" duration="116.00" routeLength="1116.49" waitingTime="8.00" waitingCount="1" stopTime="0.00" timeLoss="31.58" rerouteNo="0" devices="tripinfo_50" vType="DEFAULT_VEHTYPE" speedFactor="0.96" vaporized=""/>
    <tripinfo id="47" depart="47.00" departLane="EasttoR_0" departPos="5.10" departSpeed="0.00" departDelay="0.00" arrival="167.00" arrivalLane="UtoNorthEast_1" arrivalPos="486.32" arrivalSpeed="15.43" duration="120.00" routeLength="1098.32" waitingTime="23.00" waitingCount="2" stopTime="0.00" timeLoss="48.85" rerouteNo="0" devices="tripinfo_47" vType="DEFAULT_VEHTYPE" speedFactor="1.12" vaporized=""/>
    <tripinfo id="54" depart="56.00" departLane="EasttoR_0" departPos="5.10" departSpeed="0.00" departDelay="2.00" arrival="168.00" arrivalLane="UtoNorthEast_0" arrivalPos="486.32" arrivalSpeed="11.88" duration="112.00" routeLength="1098.32" waitingTime="8.00" waitingCount="1" stopTime="0.00" timeLoss="25.89" rerouteNo="0" devices="tripinfo_54" vType="DEFAULT_VEHTYPE" speedFactor="0.93" vaporized=""/>
    <tripinfo id="34" depart="36.00" departLane="NorthEasttoU_0" departPos="5.10" departSpeed="0.00" departDelay="2.00" arrival="169.00" arrivalLane="LtoWest_0" arrivalPos="472.82" arrivalSpeed="9.47" duration="133.00" routeLength="1226.49" waitingTime="2.00" waitingCount="1" stopTime="0.00" timeLoss="17.74" rerouteNo="0" devices="tripinfo_34" vType="DEFAULT_VEHTYPE" speedFactor="0.77" vaporized=""/>
    <tripinfo id="3" depart="9.00" departLane="EasttoR_0" departPos="5.10" departSpeed="0.00" departDelay="6.00" arrival="171.00" arrivalLane="LtoSouthWest_0" arrivalPos="472.75" arrivalSpeed="14.14" duration="162.00" routeLength="1358.18" waitingTime="43.00" waitingCount="2" stopTime="0.00" timeLoss="67.82" rerouteNo="0" devices="tripinfo_3" vType="DEFAULT_VEHTYPE" speedFactor="1.05" vaporized=""/>
    <tripinfo id="68" depart="69.00" departLane="EasttoR_0" departPos="5.10" departSpeed="0.00" departDelay="1.00" arrival="171.00" arrivalLane="UtoNorthEast_0" arrivalPos="486.32" arrivalSpeed="13.60" duration="102.00" routeLength="1098.32" waitingTime="0.00" waitingCount="0" stopTime="0.00" timeLoss="25.87" rerouteNo="0" devices="tripinfo_68" vType="DEFAULT_VEHTYPE" speedFactor="1.05" vaporized=""/>
    <tripinfo id="15" depart="21.00" departLane="EasttoR_0" departPos="5.10" departSpeed="0.00" departDelay="6.00" arrival="172.00" arrivalLane="LtoSouthWest_1" arrivalPos="472.75" arrivalSpeed="13.45" duration="151.00" routeLength="1358.18" waitingTime="31.00" waitingCount="1" stopTime="0.00" timeLoss="54.02" rerouteNo="0" devices="tripinfo_15" vType="DEFAULT_VEHTYPE" speedFactor="1.01" vaporized=""/>
    <tripinfo id="66" depart="66.00" departLane="EasttoR_0" departPos="5.10" departSpeed="0.00" departDelay="0.00" arrival="172.00" arrivalLane="UtoNorthWest_0" arrivalPos="486.32" arrivalSpeed="12.76" duration="106.00" routeLength="1116.49" waitingTime="0.00" waitingCount="0" stopTime="0.00" timeLoss="20.51" rerouteNo="0" devices="tripinfo_66" vType="DEFAULT_VEHTYPE" speedFactor="0.94" vaporized=""/>
    <tripinfo id="70" depart="72.00" departLane="EasttoR_0" departPos="5.10" departSpeed="0.00" departDelay="2.00" arrival="176.00" arrivalLane="UtoNorthWest_0" arrivalPos="486.32" arrivalSpeed="11.82" duration="104.00" routeLength="1116.49" waitingTime="0.00" waitingCount="0" stopTime="0.00" timeLoss="10.18" rerouteNo="0" devices="tripinfo_70" vType="DEFAULT_VEHTYPE" speedFactor="0.86" vaporized=""/>
    <tripinfo id="39" depart="39.00" departLane="SouthWesttoL_0" departPos="5.10" departSpeed="0.00" departDelay="0.00" arrival="184.00" arrivalLane="RtoEast_1" arrivalPos="472.82" arrivalSpeed="15.48" duration="145.00" routeLength="1230.07" waitingTime="51.00" waitingCount="1" stopTime="0.00" timeLoss="68.39" rerouteNo="0" devices="tripinfo_39" vType="DEFAULT_VEHTYPE" speedFactor="1.17" vaporized=""/>
    <tripinfo id="7" depart="9.00" departLane="SouthWesttoL_0" departPos="5.10" departSpeed="0.00" departDelay="2.00" arrival="186.00" arrivalLane="RtoEast_0" arrivalPos="472.82" arrivalSpeed="14.59" duration="177.00" routeLength="1230.07" waitingTime="74.00" waitingCount="2" stopTime="0.00" timeLoss="95.20" rerouteNo="0" devices="tripinfo_7" vType="DEFAULT_VEHTYPE" speedFactor="1.09" vaporized=""/>
    <tripinfo id="9" depart="12.00" departLane="SouthWesttoL_0" departPos="5.10" departSpeed="0.00" departDelay="3.00" arrival="187.00" arrivalLane="RtoSouthEast_1" arrivalPos="472.75" arrivalSpeed="15.05" duration="175.00" routeLength="1220.90" waitingTime="72.00" waitingCount="2" stopTime="0.00" timeLoss="96.39" rerouteNo="0" devices="tripinfo_9" vType="DEFAULT_VEHTYPE" speedFactor="1.12" vaporized=""/>
    <tripinfo id="6" depart="6.00" departLane="SouthWesttoL_0" departPos="5.10" departSpeed="0.00" departDelay="0.00" arrival="189.00" arrivalLane="RtoSouthEast_0" arrivalPos="472.75" arrivalSpeed="12.96" duration="183.00" routeLength="1220.90" waitingTime="75.00" waitingCount="2" stopTime="0.00" timeLoss="95.84" rerouteNo="0" devices="tripinfo_6" vType="DEFAULT_VEHTYPE" speedFactor="1.02" vaporized=""/>
    <tripinfo id="53" depart="53.00" departLane="SouthWesttoL_0" departPos="5.10" departSpeed="0.00" departDelay="0.00" arrival="193.00" arrivalLane="RtoEast_0" arrivalPos="472.82" arrivalSpeed="13.90" duration="140.00" routeLength="1230.07" waitingTime="36.00" waitingCount="1" stopTime="0.00" timeLoss="52.90" rerouteNo="0" devices="tripinfo_53" vType="DEFAULT_VEHTYPE" speedFactor="1.02" vaporized=""/>
    <tripinfo id="35" depart="35.00" departLane="WesttoL_0" departPos="5.10" departSpeed="0.00" departDelay="0.00" arrival="195.00" arrivalLane="LtoSouthWest_0" arrivalPos="472.75" arrivalSpeed="11.27" duration="160.00" routeLength="950.21" waitingTime="70.00" waitingCount="1" stopTime="0.00" timeLoss="83.55" rerouteNo="0" devices="tripinfo_35" vType="DEFAULT_VEHTYPE" speedFactor="0.90" vaporized=""/>
    <tripinfo id="40" depart="41.00" departLane="EasttoR_0" departPos="5.10" departSpeed="0.00" departDelay="1.00" arrival="195.00" arrivalLane="RtoEast_1" arrivalPos="472.82" arrivalSpeed="14.07" duration="154.00" routeLength="1587.44" waitingTime="21.00" waitingCount="1" stopTime="0.00" timeLoss="45.06" rerouteNo="0" devices="tripinfo_40" vType="DEFAULT_VEHTYPE" speedFactor="1.05" vaporized=""/>
    <tripinfo id="19" depart="19.00" departLane="SouthWesttoL_0" departPos="5.10" departSpeed="0.00" departDelay="0.00" arrival="198.00" arrivalLane="RtoSouthEast_0" arrivalPos="472.75" arrivalSpeed="11.56" duration="179.00" routeLength="1220.90" waitingTime="57.00" waitingCount="2" stopTime="0.00" timeLoss="77.97" rerouteNo="0" devices="tripinfo_19" vType="DEFAULT_VEHTYPE" speedFactor="0.87" vaporized=""/>
    <tripinfo id="103" depart="105.00" departLane="WesttoL_0" departPos="5.10" departSpeed="0.00" departDelay="2.00" arrival="198.00" arrivalLane="LtoSouthWest_0" arrivalPos="472.75" arrivalSpeed="12.89" duration="93.00" routeLength="950.21" waitingTime="8.00" waitingCount="1" stopTime="0.00" timeLoss="24.66" rerouteNo="0" devices="tripinfo_103" vType="DEFAULT_VEHTYPE" speedFactor="1.01" vaporized=""/>
    <tripinfo id="26" depart="26.00" departLane="SouthWesttoL_0" departPos="5.10" departSpeed="0.00" departDelay="0.00" arrival="199.00" arrivalLane="RtoSouthEast_1" arrivalPos="472.75" arrivalSpeed="12.93" duration="173.00" routeLength="1220.90" waitingTime="63.00" waitingCount="2" stopTime="0.00" timeLoss="81.27" rerouteNo="0" devices="tripinfo_26" vType="DEFAULT_VEHTYPE" speedFactor="0.97" vaporized=""/>
    <tripinfo id="114" depart="114.00" departLane="NorthWesttoU_0" departPos="5.10" departSpeed="0.00" departDelay="0.00" arrival="199.00" arrivalLane="UtoNorthEast_0" arrivalPos="486.32" arrivalSpeed="12.61" duration="85.00" routeLength="995.65" waitingTime="0.00" waitingCount="0" stopTime="0.00" timeLoss="8.30" rerouteNo="0" devices="tripinfo_114" vType="DEFAULT_VEHTYPE" speedFactor="0.94" vaporized=""/>
    <tripinfo id="106" depart="114.00" departLane="WesttoL_0" departPos="5.10" departSpeed="0.00" departDelay="8.00" arrival="200.00" arrivalLane="LtoSouthWest_1" arrivalPos="472.75" arrivalSpeed="13.46" duration="86.00" routeLength="950.21" waitingTime="1.00" waitingCount="1" stopTime="0.00" timeLoss="20.27" rerouteNo="0" devices="tripinfo_106" vType="DEFAULT_VEHTYPE" speedFactor="1.06" vaporized=""/>
    <tripinfo id="46" depart="46.00" departLane="SouthWesttoL_0" departPos="5.10" departSpeed="0.00" departDelay="0.00" arrival="202.00" arrivalLane="RtoEast_0" arrivalPos="472.82" arrivalSpeed="13.52" duration="156.00" routeLength="1230.07" waitingTime="47.00" waitingCount="2" stopTime="0.00" timeLoss="66.33" rerouteNo="0" devices="tripinfo_46" vType="DEFAULT_VEHTYPE" speedFactor="1.00" vaporized=""/>
    <tripinfo id="77" depart="78.00" departLane="EasttoR_0" departPos="5.10" departSpeed="0.00" departDelay="1.00" arrival="202.00" arrivalLane="RtoEast_1" arrivalPos="472.82" arrivalSpeed="13.83" duration="124.00" routeLength="1587.44" waitingTime="0.00" waitingCount="0" stopTime="0.00" timeLoss="17.36" rerouteNo="0" devices="tripinfo_77" vType="DEFAULT_VEHTYPE" speedFactor="1.07" vaporized=""/>
    <tripinfo id="61" depart="61.00" departLane="SouthWesttoL_0" departPos="5.10" departSpeed="0.00" departDelay="0.00" arrival="203.00" arrivalLane="RtoEast_1" arrivalPos="472.82" arrivalSpeed="13.44" duration="142.00" routeLength="1230.07" waitingTime="33.00" waitingCount="1" stopTime="0.00" timeLoss="54.70" rerouteNo="0" devices="tripinfo_61" vType="DEFAULT_VEHTYPE" speedFactor="1.02" vaporized=""/>
    <tripinfo id="104" depart="108.00" departLane="WesttoL_0" departPos="5.10" departSpeed="0.00" departDelay="4.00" arrival="205.00" arrivalLane="LtoSouthWest_0" arrivalPos="472.75" arrivalSpeed="12.40" duration="97.00" routeLength="950.21" waitingTime="6.00" waitingCount="1" stopTime="0.00" timeLoss="25.04" rerouteNo="0" devices="tripinfo_104" vType="DEFAULT_VEHTYPE" speedFactor="0.95" vaporized=""/>
    <tripinfo id="100" depart="102.00" departLane="WesttoL_0" departPos="5.10" departSpeed="0.00" departDelay="2.00" arrival="208.00" arrivalLane="LtoSouthWest_0" arrivalPos="472.75" arrivalSpeed="11.17" duration="106.00" routeLength="950.21" waitingTime="7.00" waitingCount="1" stopTime="0.00" timeLoss="24.14" rerouteNo="0" devices="tripinfo_100" vType="DEFAULT_VEHTYPE" speedFactor="0.84" vaporized=""/>
    <tripinfo id="52" depart="53.00" departLane="EasttoR_0" departPos="5.10" departSpeed="0.00" departDelay="1.00" arrival="209.00" arrivalLane="RtoEast_0" arrivalPos="472.82" arrivalSpeed="12.19" duration="156.00" routeLength="1587.44" waitingTime="8.00" waitingCount="1" stopTime="0.00" timeLoss="35.05" rerouteNo="0" devices="tripinfo_52" vType="DEFAULT_VEHTYPE" speedFactor="0.95" vaporized=""/>
    <tripinfo id="29" depart="29.00" departLane="WesttoL_0" departPos="5.10" departSpeed="0.00" departDelay="0.00" arrival="211.00" arrivalLane="RtoSouthEast_1" arrivalPos="472.75" arrivalSpeed="14.98" duration="182.00" routeLength="1230.07" waitingTime="75.00" waitingCount="2" stopTime="0.00" timeLoss="101.21" rerouteNo="0" devices="tripinfo_29" vType="DEFAULT_VEHTYPE" speedFactor="1.10" vaporized=""/>
    <tripinfo id="130" depart="138.00" departLane="WesttoL_0" departPos="5.10" departSpeed="0.00" departDelay="8.00" arrival="212.00" arrivalLane="LtoSouthWest_0" arrivalPos="472.75" arrivalSpeed="14.63" duration="74.00" routeLength="950.21" waitingTime="0.00" waitingCount="0" stopTime="0.00" timeLoss="9.28" rerouteNo="0" devices="tripinfo_130" vType="DEFAULT_VEHTYPE" speedFactor="1.06" vaporized=""/>
    <tripinfo id="132" depart="133.00" departLane="NorthWesttoU_0" departPos="5.10" departSpeed="0.00" departDelay="1.00" arrival="212.00" arrivalLane="UtoNorthEast_0" arrivalPos="486.32" arrivalSpeed="14.13" duration="79.00" routeLength="995.65" waitingTime="0.00" waitingCount="0" stopTime="0.00" timeLoss="8.10" rerouteNo="0" devices="tripinfo_132" vType="DEFAULT_VEHTYPE" speedFactor="1.03" vaporized=""/>
    <tripinfo id="30" depart="30.00" departLane="SouthWesttoL_0" departPos="5.10" departSpeed="0.00" departDelay="0.00" arrival="213.00" arrivalLane="RtoSouthEast_0" arrivalPos="472.75" arrivalSpeed="11.44" duration="183.00" routeLength="1220.90" waitingTime="50.00" waitingCount="3" stopTime="0.00" timeLoss="76.62" rerouteNo="0" devices="tripinfo_30" vType="DEFAULT_VEHTYPE" speedFactor="0.83" vaporized=""/>
    <tripinfo id="10" depart="10.00" departLane="WesttoL_0" departPos="5.10" departSpeed="0.00" departDelay="0.00" arrival="215.00" arrivalLane="RtoSouthEast_0" arrivalPos="472.75" arrivalSpeed="12.28" duration="205.00" routeLength="1230.07" waitingTime="92.00" waitingCount="1" stopTime="0.00" timeLoss="105.92" rerouteNo="0" devices="tripinfo_10" vType="DEFAULT_VEHTYPE" speedFactor="0.90" vaporized=""/>
    <tripinfo id="133" depart="141.00" departLane="WesttoL_0" departPos="5.10" departSpeed="0.00" departDelay="8.00" arrival="215.00" arrivalLane="LtoSouthWest_0" arrivalPos="472.75" arrivalSpeed="14.27" duration="74.00" routeLength="950.21" waitingTime="0.00" waitingCount="0" stopTime="0.00" timeLoss="10.21" rerouteNo="0" devices="tripinfo_133" vType="DEFAULT_VEHTYPE" speedFactor="1.09" vaporized=""/>
    <tripinfo id="63" depart="63.00" departLane="WesttoL_0" departPos="5.10" departSpeed="0.00" departDelay="0.00" arrival="217.00" arrivalLane="RtoEast_0" arrivalPos="472.82" arrivalSpeed="13.20" duration="154.00" routeLength="1239.24" waitingTime="43.00" waitingCount="1" stopTime="0.00" timeLoss="62.04" rerouteNo="0" devices="tripinfo_63" vType="DEFAULT_VEHTYPE" speedFactor="0.98" vaporized=""/>
    <tripinfo id="99" depart="99.00" departLane="WesttoL_0" departPos="5.10" departSpeed="0.00" departDelay="0.00" arrival="218.00" arrivalLane="RtoEast_2" arrivalPos="472.82" arrivalSpeed="13.39" duration="119.00" routeLength="1239.24" waitingTime="12.00" waitingCount="1" stopTime="0.00" timeLoss="31.87" rerouteNo="0" devices="tripinfo_99" vType="DEFAULT_VEHTYPE" speedFactor="1.03" vaporized=""/>
    <tripinfo id="48" depart="48.00" departLane="WesttoL_0" departPos="5.10" departSpeed="0.00" departDelay="0.00" arrival="219.00" arrivalLane="RtoEast_1" arrivalPos="472.82" arrivalSpeed="12.69" duration="171.00" routeLength="1239.24" waitingTime="59.00" waitingCount="1" stopTime="0.00" timeLoss="81.56" rerouteNo="0" devices="tripinfo_48" vType="DEFAULT_VEHTYPE" speedFactor="1.00" vaporized=""/>
    <tripinfo id="22" depart="22.00" departLane="WesttoL_0" departPos="5.10" departSpeed="0.00" departDelay="0.00" arrival="221.00" arrivalLane="RtoEast_0" arrivalPos="472.82" arrivalSpeed="12.03" duration="199.00" routeLength="1239.24" waitingTime="77.00" waitingCount="2" stopTime="0.00" timeLoss="98.46" rerouteNo="0" devices="tripinfo_22" vType="DEFAULT_VEHTYPE" speedFactor="0.89" vaporized=""/>
    <tripinfo id="73" depart="74.00" departLane="NorthEasttoU_0" departPos="5.10" departSpeed="0.00" departDelay="1.00" arrival="221.00" arrivalLane="UtoNorthWest_0" arrivalPos="486.32" arrivalSpeed="14.34" duration="147.00" routeLength="976.57" waitingTime="72.00" waitingCount="1" stopTime="0.00" timeLoss="82.60" rerouteNo="0" devices="tripinfo_73" vType="DEFAULT_VEHTYPE" speedFactor="1.10" vaporized=""/>
    <tripinfo id="107" depart="117.00" departLane="WesttoL_0" departPos="5.10" departSpeed="0.00" departDelay="10.00" arrival="221.00" arrivalLane="RtoEast_2" arrivalPos="472.82" arrivalSpeed="15.08" duration="104.00" routeLength="1239.24" waitingTime="0.00" waitingCount="0" stopTime="0.00" timeLoss="23.69" rerouteNo="0" devices="tripinfo_107" vType="DEFAULT_VEHTYPE" speedFactor="1.11" vaporized=""/>
    <tripinfo id="11" depart="12.00" departLane="WesttoL_0" departPos="5.10" departSpeed="0.00" departDelay="1.00" arrival="222.00" arrivalLane="RtoEast_0" arrivalPos="472.82" arrivalSpeed="12.65" duration="210.00" routeLength="1239.24" waitingTime="94.00" waitingCount="2" stopTime="0.00" timeLoss="113.71" rerouteNo="0" devices="tripinfo_11" vType="DEFAULT_VEHTYPE" speedFactor="0.93" vaporized=""/>
    <tripinfo id="75" depart="75.00" departLane="WesttoL_0" departPos="5.10" departSpeed="0.00" departDelay="0.00" arrival="222.00" arrivalLane="RtoEast_1" arrivalPos="472.82" arrivalSpeed="13.41" duration="147.00" routeLength="1239.24" waitingTime="32.00" waitingCount="1" stopTime="0.00" timeLoss="54.26" rerouteNo="0" devices="tripinfo_75" vType="DEFAULT_VEHTYPE" speedFactor="0.97" vaporized=""/>
    <tripinfo id="76" depart="78.00" departLane="WesttoL_0" departPos="5.10" departSpeed="0.00" departDelay="2.00" arrival="223.00" arrivalLane="RtoSouthEast_0" arrivalPos="472.75" arrivalSpeed="12.64" duration="145.00" routeLength="1230.07" waitingTime="32.00" waitingCount="1" stopTime="0.00" timeLoss="50.95" rerouteNo="0" devices="tripinfo_76" vType="DEFAULT_VEHTYPE" speedFactor="0.95" vaporized=""/>
    <tripinfo id="78" depart="81.00" departLane="WesttoL_0" departPos="5.10" departSpeed="0.00" departDelay="3.00" arrival="223.00" arrivalLane="RtoSouthEast_2" arrivalPos="472.75" arrivalSpeed="14.69" duration="142.00" routeLength="1230.07" waitingTime="26.00" waitingCount="2" stopTime="0.00" timeLoss="58.91" rerouteNo="0" devices="tripinfo_78" vType="DEFAULT_VEHTYPE" speedFactor="1.08" vaporized=""/>
    <tripinfo id="37" depart="38.00" departLane="WesttoL_0" departPos="5.10" departSpeed="0.00" departDelay="1.00" arrival="225.00" arrivalLane="RtoSouthEast_0" arrivalPos="472.75" arrivalSpeed="11.50" duration="187.00" routeLength="1230.07" waitingTime="68.00" waitingCount="1" stopTime="0.00" timeLoss="85.11" rerouteNo="0" devices="tripinfo_37" vType="DEFAULT_VEHTYPE" speedFactor="0.88" vaporized=""/>
    <tripinfo id="25" depart="25.00" departLane="NorthWesttoU_0" departPos="5.10" departSpeed="0.00" departDelay="0.00" arrival="226.00" arrivalLane="LtoWest_0" arrivalPos="472.82" arrivalSpeed="13.78" duration="201.00" routeLength="1208.32" waitingTime="95.00" waitingCount="2" stopTime="0.00" timeLoss="112.73" rerouteNo="0" devices="tripinfo_25" vType="DEFAULT_VEHTYPE" speedFactor="0.99" vaporized=""/>
    <tripinfo id="84" depart="84.00" departLane="WesttoL_0" departPos="5.10" departSpeed="0.00" departDelay="0.00" arrival="226.00" arrivalLane="RtoEast_0" arrivalPos="472.82" arrivalSpeed="13.04" duration="142.00" routeLength="1239.24" waitingTime="22.00" waitingCount="1" stopTime="0.00" timeLoss="54.05" rerouteNo="0" devices="tripinfo_84" vType="DEFAULT_VEHTYPE" speedFactor="1.02" vaporized=""/>
    <tripinfo id="108" depart="120.00" departLane="WesttoL_0" departPos="5.10" departSpeed="0.00" departDelay="12.00" arrival="228.00" arrivalLane="RtoEast_0" arrivalPos="472.82" arrivalSpeed="13.35" duration="108.00" routeLength="1239.24" waitingTime="0.00" waitingCount="0" stopTime="0.00" timeLoss="19.82" rerouteNo="0" devices="tripinfo_108" vType="DEFAULT_VEHTYPE" speedFactor="1.01" vaporized=""/>
    <tripinfo id="55" depart="55.00" departLane="NorthWesttoU_0" departPos="5.10" departSpeed="0.00" departDelay="0.00" arrival="229.00" arrivalLane="LtoSouthWest_0" arrivalPos="472.75" arrivalSpeed="14.15" duration="174.00" routeLength="1217.35" waitingTime="68.00" waitingCount="2" stopTime="0.00" timeLoss="90.93" rerouteNo="0" devices="tripinfo_55" vType="DEFAULT_VEHTYPE" speedFactor="1.06" vaporized=""/>
    <tripinfo id="89" depart="89.00" departLane="WesttoL_0" departPos="5.10" departSpeed="0.00" departDelay="0.00" arrival="230.00" arrivalLane="RtoEast_1" arrivalPos="472.82" arrivalSpeed="12.70" duration="141.00" routeLength="1239.24" waitingTime="26.00" waitingCount="2" stopTime="0.00" timeLoss="50.51" rerouteNo="0" devices="tripinfo_89" vType="DEFAULT_VEHTYPE" speedFactor="0.99" vaporized=""/>
    <tripinfo id="28" depart="28.00" departLane="NorthWesttoU_0" departPos="5.10" departSpeed="0.00" departDelay="0.00" arrival="231.00" arrivalLane="LtoWest_0" arrivalPos="472.82" arrivalSpeed="12.38" duration="203.00" routeLength="1208.32" waitingTime="89.00" waitingCount="2" stopTime="0.00" timeLoss="109.61" rerouteNo="0" devices="tripinfo_28" vType="DEFAULT_VEHTYPE" speedFactor="0.94" vaporized=""/>
    <tripinfo id="118" depart="126.00" departLane="WesttoL_0" departPos="5.10" departSpeed="0.00" departDelay="8.00" arrival="231.00" arrivalLane="RtoSouthEast_0" arrivalPos="472.75" arrivalSpeed="13.76" duration="105.00" routeLength="1230.07" waitingTime="0.00" waitingCount="0" stopTime="0.00" timeLoss="16.16" rerouteNo="0" devices="tripinfo_118" vType="DEFAULT_VEHTYPE" speedFactor="1.01" vaporized=""/>
    <tripinfo id="81" depart="82.00" departLane="NorthWesttoU_0" departPos="5.10" departSpeed="0.00" departDelay="1.00" arrival="232.00" arrivalLane="LtoWest_1" arrivalPos="472.82" arrivalSpeed="14.63" duration="150.00" routeLength="1208.32" waitingTime="41.00" waitingCount="2" stopTime="0.00" timeLoss="67.83" rerouteNo="0" devices="tripinfo_81" vType="DEFAULT_VEHTYPE" speedFactor="1.06" vaporized=""/>